write by das.strcture.Structure. 
0.000000000000000 29.199733630204751 xlo xhi
0.000000000000000 29.199733630204751 ylo yhi
0.000000000000000 29.199733630204790 zlo zhi
-0.000000000000003 -0.000000000000001 -0.000000000000001 xy xz yz

1500 atoms
2 atom types

Masses

1   63.545999999999999  ## Cu
2   78.971000000000004  ## Se

Atoms # atomic

         1    1    1.459986681510234    1.459986681510234    1.459986681510237
         2    1    1.459986681510234    1.459986681510234    7.299933407551198
         3    1    1.459986681510234    1.459986681510234   13.139880133592156
         4    1    1.459986681510234    1.459986681510234   18.979826859633111
         5    1    1.459986681510234    1.459986681510233   24.819773585674071
         6    1    1.459986681510234    7.299933407551188    1.459986681510238
         7    1    1.459986681510234    7.299933407551188    7.299933407551198
         8    1    1.459986681510234    7.299933407551187   13.139880133592158
         9    1    1.459986681510234    7.299933407551187   18.979826859633111
        10    1    1.459986681510233    7.299933407551187   24.819773585674071
        11    1    1.459986681510233   13.139880133592138    1.459986681510238
        12    1    1.459986681510233   13.139880133592138    7.299933407551199
        13    1    1.459986681510233   13.139880133592138   13.139880133592158
        14    1    1.459986681510233   13.139880133592136   18.979826859633114
        15    1    1.459986681510233   13.139880133592136   24.819773585674074
        16    1    1.459986681510232   18.979826859633086    1.459986681510239
        17    1    1.459986681510232   18.979826859633086    7.299933407551200
        18    1    1.459986681510232   18.979826859633086   13.139880133592158
        19    1    1.459986681510232   18.979826859633086   18.979826859633114
        20    1    1.459986681510232   18.979826859633086   24.819773585674074
        21    1    1.459986681510232   24.819773585674039    1.459986681510240
        22    1    1.459986681510232   24.819773585674039    7.299933407551201
        23    1    1.459986681510232   24.819773585674039   13.139880133592159
        24    1    1.459986681510232   24.819773585674039   18.979826859633114
        25    1    1.459986681510232   24.819773585674039   24.819773585674074
        26    1    7.299933407551188    1.459986681510234    1.459986681510238
        27    1    7.299933407551188    1.459986681510234    7.299933407551199
        28    1    7.299933407551188    1.459986681510234   13.139880133592158
        29    1    7.299933407551188    1.459986681510234   18.979826859633114
        30    1    7.299933407551188    1.459986681510233   24.819773585674071
        31    1    7.299933407551187    7.299933407551188    1.459986681510239
        32    1    7.299933407551187    7.299933407551188    7.299933407551200
        33    1    7.299933407551187    7.299933407551187   13.139880133592158
        34    1    7.299933407551187    7.299933407551187   18.979826859633114
        35    1    7.299933407551187    7.299933407551187   24.819773585674074
        36    1    7.299933407551186   13.139880133592138    1.459986681510240
        37    1    7.299933407551186   13.139880133592138    7.299933407551200
        38    1    7.299933407551186   13.139880133592138   13.139880133592159
        39    1    7.299933407551186   13.139880133592136   18.979826859633114
        40    1    7.299933407551186   13.139880133592136   24.819773585674074
        41    1    7.299933407551186   18.979826859633086    1.459986681510240
        42    1    7.299933407551186   18.979826859633086    7.299933407551201
        43    1    7.299933407551186   18.979826859633086   13.139880133592159
        44    1    7.299933407551186   18.979826859633086   18.979826859633114
        45    1    7.299933407551186   18.979826859633086   24.819773585674074
        46    1    7.299933407551185   24.819773585674039    1.459986681510241
        47    1    7.299933407551185   24.819773585674039    7.299933407551202
        48    1    7.299933407551185   24.819773585674039   13.139880133592161
        49    1    7.299933407551185   24.819773585674039   18.979826859633114
        50    1    7.299933407551185   24.819773585674039   24.819773585674074
        51    1   13.139880133592138    1.459986681510234    1.459986681510239
        52    1   13.139880133592138    1.459986681510234    7.299933407551200
        53    1   13.139880133592138    1.459986681510234   13.139880133592159
        54    1   13.139880133592138    1.459986681510234   18.979826859633114
        55    1   13.139880133592138    1.459986681510233   24.819773585674074
        56    1   13.139880133592138    7.299933407551188    1.459986681510240
        57    1   13.139880133592138    7.299933407551188    7.299933407551201
        58    1   13.139880133592138    7.299933407551187   13.139880133592159
        59    1   13.139880133592138    7.299933407551187   18.979826859633114
        60    1   13.139880133592138    7.299933407551187   24.819773585674074
        61    1   13.139880133592136   13.139880133592138    1.459986681510241
        62    1   13.139880133592136   13.139880133592138    7.299933407551202
        63    1   13.139880133592136   13.139880133592138   13.139880133592159
        64    1   13.139880133592136   13.139880133592136   18.979826859633114
        65    1   13.139880133592136   13.139880133592136   24.819773585674074
        66    1   13.139880133592136   18.979826859633086    1.459986681510242
        67    1   13.139880133592136   18.979826859633086    7.299933407551203
        68    1   13.139880133592136   18.979826859633086   13.139880133592161
        69    1   13.139880133592136   18.979826859633086   18.979826859633114
        70    1   13.139880133592136   18.979826859633086   24.819773585674074
        71    1   13.139880133592136   24.819773585674039    1.459986681510242
        72    1   13.139880133592136   24.819773585674039    7.299933407551203
        73    1   13.139880133592136   24.819773585674039   13.139880133592161
        74    1   13.139880133592136   24.819773585674039   18.979826859633118
        75    1   13.139880133592136   24.819773585674039   24.819773585674078
        76    1   18.979826859633086    1.459986681510234    1.459986681510241
        77    1   18.979826859633086    1.459986681510234    7.299933407551202
        78    1   18.979826859633086    1.459986681510234   13.139880133592159
        79    1   18.979826859633086    1.459986681510234   18.979826859633114
        80    1   18.979826859633086    1.459986681510233   24.819773585674074
        81    1   18.979826859633086    7.299933407551188    1.459986681510241
        82    1   18.979826859633086    7.299933407551188    7.299933407551202
        83    1   18.979826859633086    7.299933407551187   13.139880133592161
        84    1   18.979826859633086    7.299933407551187   18.979826859633114
        85    1   18.979826859633086    7.299933407551187   24.819773585674074
        86    1   18.979826859633086   13.139880133592138    1.459986681510242
        87    1   18.979826859633086   13.139880133592138    7.299933407551203
        88    1   18.979826859633086   13.139880133592138   13.139880133592161
        89    1   18.979826859633086   13.139880133592136   18.979826859633118
        90    1   18.979826859633086   13.139880133592136   24.819773585674078
        91    1   18.979826859633082   18.979826859633086    1.459986681510243
        92    1   18.979826859633082   18.979826859633086    7.299933407551204
        93    1   18.979826859633082   18.979826859633086   13.139880133592161
        94    1   18.979826859633082   18.979826859633086   18.979826859633118
        95    1   18.979826859633082   18.979826859633086   24.819773585674078
        96    1   18.979826859633082   24.819773585674039    1.459986681510243
        97    1   18.979826859633082   24.819773585674039    7.299933407551205
        98    1   18.979826859633082   24.819773585674039   13.139880133592163
        99    1   18.979826859633082   24.819773585674039   18.979826859633118
       100    1   18.979826859633082   24.819773585674039   24.819773585674078
       101    1   24.819773585674039    1.459986681510234    1.459986681510242
       102    1   24.819773585674039    1.459986681510234    7.299933407551203
       103    1   24.819773585674039    1.459986681510234   13.139880133592161
       104    1   24.819773585674039    1.459986681510234   18.979826859633118
       105    1   24.819773585674039    1.459986681510233   24.819773585674078
       106    1   24.819773585674039    7.299933407551188    1.459986681510242
       107    1   24.819773585674039    7.299933407551188    7.299933407551204
       108    1   24.819773585674039    7.299933407551187   13.139880133592161
       109    1   24.819773585674039    7.299933407551187   18.979826859633118
       110    1   24.819773585674039    7.299933407551187   24.819773585674078
       111    1   24.819773585674039   13.139880133592138    1.459986681510243
       112    1   24.819773585674039   13.139880133592138    7.299933407551205
       113    1   24.819773585674039   13.139880133592138   13.139880133592163
       114    1   24.819773585674039   13.139880133592136   18.979826859633118
       115    1   24.819773585674039   13.139880133592136   24.819773585674078
       116    1   24.819773585674035   18.979826859633086    1.459986681510244
       117    1   24.819773585674035   18.979826859633086    7.299933407551205
       118    1   24.819773585674035   18.979826859633086   13.139880133592163
       119    1   24.819773585674035   18.979826859633086   18.979826859633118
       120    1   24.819773585674035   18.979826859633086   24.819773585674078
       121    1   24.819773585674035   24.819773585674039    1.459986681510245
       122    1   24.819773585674035   24.819773585674039    7.299933407551205
       123    1   24.819773585674035   24.819773585674039   13.139880133592165
       124    1   24.819773585674035   24.819773585674039   18.979826859633118
       125    1   24.819773585674035   24.819773585674039   24.819773585674078
       126    1    4.379960044530709    4.379960044530710    4.379960044530717
       127    1    4.379960044530709    4.379960044530709   10.219906770571678
       128    1    4.379960044530709    4.379960044530709   16.059853496612636
       129    1    4.379960044530709    4.379960044530709   21.899800222653592
       130    1    4.379960044530709    4.379960044530709   27.739746948694549
       131    1    4.379960044530709   10.219906770571662    4.379960044530718
       132    1    4.379960044530709   10.219906770571662   10.219906770571678
       133    1    4.379960044530709   10.219906770571662   16.059853496612639
       134    1    4.379960044530709   10.219906770571660   21.899800222653596
       135    1    4.379960044530709   10.219906770571660   27.739746948694552
       136    1    4.379960044530709   16.059853496612615    4.379960044530718
       137    1    4.379960044530709   16.059853496612615   10.219906770571679
       138    1    4.379960044530709   16.059853496612615   16.059853496612639
       139    1    4.379960044530709   16.059853496612615   21.899800222653596
       140    1    4.379960044530708   16.059853496612615   27.739746948694552
       141    1    4.379960044530708   21.899800222653564    4.379960044530719
       142    1    4.379960044530708   21.899800222653564   10.219906770571679
       143    1    4.379960044530708   21.899800222653564   16.059853496612639
       144    1    4.379960044530708   21.899800222653564   21.899800222653596
       145    1    4.379960044530707   21.899800222653564   27.739746948694552
       146    1    4.379960044530708   27.739746948694513    4.379960044530720
       147    1    4.379960044530708   27.739746948694513   10.219906770571679
       148    1    4.379960044530708   27.739746948694513   16.059853496612639
       149    1    4.379960044530708   27.739746948694513   21.899800222653596
       150    1    4.379960044530707   27.739746948694513   27.739746948694552
       151    1   10.219906770571662    4.379960044530710    4.379960044530718
       152    1   10.219906770571662    4.379960044530709   10.219906770571679
       153    1   10.219906770571662    4.379960044530709   16.059853496612639
       154    1   10.219906770571662    4.379960044530709   21.899800222653596
       155    1   10.219906770571662    4.379960044530709   27.739746948694552
       156    1   10.219906770571660   10.219906770571662    4.379960044530719
       157    1   10.219906770571660   10.219906770571662   10.219906770571679
       158    1   10.219906770571660   10.219906770571662   16.059853496612639
       159    1   10.219906770571660   10.219906770571660   21.899800222653596
       160    1   10.219906770571660   10.219906770571660   27.739746948694552
       161    1   10.219906770571660   16.059853496612615    4.379960044530720
       162    1   10.219906770571660   16.059853496612615   10.219906770571679
       163    1   10.219906770571660   16.059853496612615   16.059853496612639
       164    1   10.219906770571660   16.059853496612615   21.899800222653596
       165    1   10.219906770571660   16.059853496612615   27.739746948694552
       166    1   10.219906770571660   21.899800222653564    4.379960044530721
       167    1   10.219906770571660   21.899800222653564   10.219906770571681
       168    1   10.219906770571660   21.899800222653564   16.059853496612639
       169    1   10.219906770571660   21.899800222653564   21.899800222653596
       170    1   10.219906770571660   21.899800222653564   27.739746948694552
       171    1   10.219906770571658   27.739746948694513    4.379960044530721
       172    1   10.219906770571658   27.739746948694513   10.219906770571681
       173    1   10.219906770571658   27.739746948694513   16.059853496612639
       174    1   10.219906770571658   27.739746948694513   21.899800222653599
       175    1   10.219906770571658   27.739746948694513   27.739746948694556
       176    1   16.059853496612615    4.379960044530710    4.379960044530720
       177    1   16.059853496612615    4.379960044530709   10.219906770571679
       178    1   16.059853496612615    4.379960044530709   16.059853496612639
       179    1   16.059853496612615    4.379960044530709   21.899800222653596
       180    1   16.059853496612615    4.379960044530709   27.739746948694552
       181    1   16.059853496612615   10.219906770571662    4.379960044530720
       182    1   16.059853496612615   10.219906770571662   10.219906770571681
       183    1   16.059853496612615   10.219906770571662   16.059853496612639
       184    1   16.059853496612615   10.219906770571660   21.899800222653596
       185    1   16.059853496612615   10.219906770571660   27.739746948694552
       186    1   16.059853496612615   16.059853496612615    4.379960044530721
       187    1   16.059853496612615   16.059853496612615   10.219906770571681
       188    1   16.059853496612615   16.059853496612615   16.059853496612639
       189    1   16.059853496612615   16.059853496612615   21.899800222653596
       190    1   16.059853496612615   16.059853496612615   27.739746948694556
       191    1   16.059853496612611   21.899800222653564    4.379960044530722
       192    1   16.059853496612611   21.899800222653564   10.219906770571681
       193    1   16.059853496612611   21.899800222653564   16.059853496612643
       194    1   16.059853496612611   21.899800222653564   21.899800222653599
       195    1   16.059853496612611   21.899800222653564   27.739746948694556
       196    1   16.059853496612611   27.739746948694513    4.379960044530723
       197    1   16.059853496612611   27.739746948694513   10.219906770571683
       198    1   16.059853496612611   27.739746948694513   16.059853496612643
       199    1   16.059853496612611   27.739746948694513   21.899800222653599
       200    1   16.059853496612611   27.739746948694513   27.739746948694556
       201    1   21.899800222653564    4.379960044530710    4.379960044530721
       202    1   21.899800222653564    4.379960044530709   10.219906770571681
       203    1   21.899800222653564    4.379960044530709   16.059853496612639
       204    1   21.899800222653564    4.379960044530709   21.899800222653596
       205    1   21.899800222653564    4.379960044530709   27.739746948694552
       206    1   21.899800222653564   10.219906770571662    4.379960044530722
       207    1   21.899800222653564   10.219906770571662   10.219906770571681
       208    1   21.899800222653564   10.219906770571662   16.059853496612643
       209    1   21.899800222653564   10.219906770571660   21.899800222653599
       210    1   21.899800222653564   10.219906770571660   27.739746948694556
       211    1   21.899800222653564   16.059853496612615    4.379960044530723
       212    1   21.899800222653564   16.059853496612615   10.219906770571683
       213    1   21.899800222653564   16.059853496612615   16.059853496612643
       214    1   21.899800222653564   16.059853496612615   21.899800222653599
       215    1   21.899800222653564   16.059853496612615   27.739746948694556
       216    1   21.899800222653560   21.899800222653564    4.379960044530723
       217    1   21.899800222653560   21.899800222653564   10.219906770571683
       218    1   21.899800222653560   21.899800222653564   16.059853496612643
       219    1   21.899800222653560   21.899800222653564   21.899800222653599
       220    1   21.899800222653560   21.899800222653564   27.739746948694556
       221    1   21.899800222653560   27.739746948694513    4.379960044530724
       222    1   21.899800222653560   27.739746948694513   10.219906770571683
       223    1   21.899800222653560   27.739746948694513   16.059853496612643
       224    1   21.899800222653560   27.739746948694513   21.899800222653599
       225    1   21.899800222653560   27.739746948694513   27.739746948694556
       226    1   27.739746948694513    4.379960044530710    4.379960044530722
       227    1   27.739746948694513    4.379960044530709   10.219906770571683
       228    1   27.739746948694513    4.379960044530709   16.059853496612643
       229    1   27.739746948694513    4.379960044530709   21.899800222653599
       230    1   27.739746948694513    4.379960044530709   27.739746948694556
       231    1   27.739746948694513   10.219906770571662    4.379960044530723
       232    1   27.739746948694513   10.219906770571662   10.219906770571683
       233    1   27.739746948694513   10.219906770571662   16.059853496612643
       234    1   27.739746948694513   10.219906770571660   21.899800222653599
       235    1   27.739746948694513   10.219906770571660   27.739746948694556
       236    1   27.739746948694513   16.059853496612615    4.379960044530724
       237    1   27.739746948694513   16.059853496612615   10.219906770571683
       238    1   27.739746948694513   16.059853496612615   16.059853496612643
       239    1   27.739746948694513   16.059853496612615   21.899800222653599
       240    1   27.739746948694513   16.059853496612615   27.739746948694556
       241    1   27.739746948694510   21.899800222653564    4.379960044530725
       242    1   27.739746948694510   21.899800222653564   10.219906770571685
       243    1   27.739746948694510   21.899800222653564   16.059853496612643
       244    1   27.739746948694510   21.899800222653564   21.899800222653599
       245    1   27.739746948694510   21.899800222653564   27.739746948694556
       246    1   27.739746948694510   27.739746948694513    4.379960044530725
       247    1   27.739746948694510   27.739746948694513   10.219906770571685
       248    1   27.739746948694510   27.739746948694513   16.059853496612646
       249    1   27.739746948694510   27.739746948694513   21.899800222653603
       250    1   27.739746948694510   27.739746948694513   27.739746948694560
       251    1    4.379960044530709    4.379960044530710    1.459986681510238
       252    1    4.379960044530709    4.379960044530710    7.299933407551199
       253    1    4.379960044530709    4.379960044530709   13.139880133592158
       254    1    4.379960044530709    4.379960044530709   18.979826859633111
       255    1    4.379960044530709    4.379960044530709   24.819773585674071
       256    1    4.379960044530709   10.219906770571662    1.459986681510239
       257    1    4.379960044530709   10.219906770571662    7.299933407551199
       258    1    4.379960044530709   10.219906770571662   13.139880133592158
       259    1    4.379960044530709   10.219906770571660   18.979826859633114
       260    1    4.379960044530709   10.219906770571660   24.819773585674074
       261    1    4.379960044530709   16.059853496612615    1.459986681510239
       262    1    4.379960044530709   16.059853496612615    7.299933407551200
       263    1    4.379960044530709   16.059853496612615   13.139880133592159
       264    1    4.379960044530709   16.059853496612615   18.979826859633114
       265    1    4.379960044530709   16.059853496612615   24.819773585674074
       266    1    4.379960044530708   21.899800222653564    1.459986681510240
       267    1    4.379960044530708   21.899800222653564    7.299933407551201
       268    1    4.379960044530708   21.899800222653564   13.139880133592159
       269    1    4.379960044530708   21.899800222653564   18.979826859633114
       270    1    4.379960044530708   21.899800222653564   24.819773585674074
       271    1    4.379960044530708   27.739746948694513    1.459986681510241
       272    1    4.379960044530708   27.739746948694513    7.299933407551202
       273    1    4.379960044530708   27.739746948694513   13.139880133592159
       274    1    4.379960044530708   27.739746948694513   18.979826859633114
       275    1    4.379960044530708   27.739746948694513   24.819773585674074
       276    1   10.219906770571662    4.379960044530710    1.459986681510239
       277    1   10.219906770571662    4.379960044530710    7.299933407551200
       278    1   10.219906770571662    4.379960044530709   13.139880133592158
       279    1   10.219906770571662    4.379960044530709   18.979826859633114
       280    1   10.219906770571662    4.379960044530709   24.819773585674074
       281    1   10.219906770571660   10.219906770571662    1.459986681510240
       282    1   10.219906770571660   10.219906770571662    7.299933407551201
       283    1   10.219906770571660   10.219906770571662   13.139880133592159
       284    1   10.219906770571660   10.219906770571660   18.979826859633114
       285    1   10.219906770571660   10.219906770571660   24.819773585674074
       286    1   10.219906770571660   16.059853496612615    1.459986681510240
       287    1   10.219906770571660   16.059853496612615    7.299933407551202
       288    1   10.219906770571660   16.059853496612615   13.139880133592159
       289    1   10.219906770571660   16.059853496612615   18.979826859633114
       290    1   10.219906770571660   16.059853496612615   24.819773585674074
       291    1   10.219906770571660   21.899800222653564    1.459986681510241
       292    1   10.219906770571660   21.899800222653564    7.299933407551202
       293    1   10.219906770571660   21.899800222653564   13.139880133592161
       294    1   10.219906770571660   21.899800222653564   18.979826859633114
       295    1   10.219906770571660   21.899800222653564   24.819773585674074
       296    1   10.219906770571658   27.739746948694513    1.459986681510242
       297    1   10.219906770571658   27.739746948694513    7.299933407551203
       298    1   10.219906770571658   27.739746948694513   13.139880133592161
       299    1   10.219906770571658   27.739746948694513   18.979826859633118
       300    1   10.219906770571658   27.739746948694513   24.819773585674078
       301    1   16.059853496612615    4.379960044530710    1.459986681510240
       302    1   16.059853496612615    4.379960044530710    7.299933407551201
       303    1   16.059853496612615    4.379960044530709   13.139880133592159
       304    1   16.059853496612615    4.379960044530709   18.979826859633114
       305    1   16.059853496612615    4.379960044530709   24.819773585674074
       306    1   16.059853496612615   10.219906770571662    1.459986681510241
       307    1   16.059853496612615   10.219906770571662    7.299933407551202
       308    1   16.059853496612615   10.219906770571662   13.139880133592161
       309    1   16.059853496612615   10.219906770571660   18.979826859633114
       310    1   16.059853496612615   10.219906770571660   24.819773585674074
       311    1   16.059853496612615   16.059853496612615    1.459986681510242
       312    1   16.059853496612615   16.059853496612615    7.299933407551203
       313    1   16.059853496612615   16.059853496612615   13.139880133592161
       314    1   16.059853496612615   16.059853496612615   18.979826859633118
       315    1   16.059853496612615   16.059853496612615   24.819773585674074
       316    1   16.059853496612611   21.899800222653564    1.459986681510242
       317    1   16.059853496612611   21.899800222653564    7.299933407551204
       318    1   16.059853496612611   21.899800222653564   13.139880133592161
       319    1   16.059853496612611   21.899800222653564   18.979826859633118
       320    1   16.059853496612611   21.899800222653564   24.819773585674078
       321    1   16.059853496612611   27.739746948694513    1.459986681510243
       322    1   16.059853496612611   27.739746948694513    7.299933407551204
       323    1   16.059853496612611   27.739746948694513   13.139880133592163
       324    1   16.059853496612611   27.739746948694513   18.979826859633118
       325    1   16.059853496612611   27.739746948694513   24.819773585674078
       326    1   21.899800222653564    4.379960044530710    1.459986681510242
       327    1   21.899800222653564    4.379960044530710    7.299933407551203
       328    1   21.899800222653564    4.379960044530709   13.139880133592161
       329    1   21.899800222653564    4.379960044530709   18.979826859633114
       330    1   21.899800222653564    4.379960044530709   24.819773585674074
       331    1   21.899800222653564   10.219906770571662    1.459986681510242
       332    1   21.899800222653564   10.219906770571662    7.299933407551203
       333    1   21.899800222653564   10.219906770571662   13.139880133592161
       334    1   21.899800222653564   10.219906770571660   18.979826859633118
       335    1   21.899800222653564   10.219906770571660   24.819773585674078
       336    1   21.899800222653564   16.059853496612615    1.459986681510243
       337    1   21.899800222653564   16.059853496612615    7.299933407551204
       338    1   21.899800222653564   16.059853496612615   13.139880133592163
       339    1   21.899800222653564   16.059853496612615   18.979826859633118
       340    1   21.899800222653564   16.059853496612615   24.819773585674078
       341    1   21.899800222653560   21.899800222653564    1.459986681510244
       342    1   21.899800222653560   21.899800222653564    7.299933407551205
       343    1   21.899800222653560   21.899800222653564   13.139880133592163
       344    1   21.899800222653560   21.899800222653564   18.979826859633118
       345    1   21.899800222653560   21.899800222653564   24.819773585674078
       346    1   21.899800222653560   27.739746948694513    1.459986681510244
       347    1   21.899800222653560   27.739746948694513    7.299933407551205
       348    1   21.899800222653560   27.739746948694513   13.139880133592163
       349    1   21.899800222653560   27.739746948694513   18.979826859633118
       350    1   21.899800222653560   27.739746948694513   24.819773585674078
       351    1   27.739746948694513    4.379960044530710    1.459986681510243
       352    1   27.739746948694513    4.379960044530710    7.299933407551204
       353    1   27.739746948694513    4.379960044530709   13.139880133592161
       354    1   27.739746948694513    4.379960044530709   18.979826859633118
       355    1   27.739746948694513    4.379960044530709   24.819773585674078
       356    1   27.739746948694513   10.219906770571662    1.459986681510243
       357    1   27.739746948694513   10.219906770571662    7.299933407551205
       358    1   27.739746948694513   10.219906770571662   13.139880133592163
       359    1   27.739746948694513   10.219906770571660   18.979826859633118
       360    1   27.739746948694513   10.219906770571660   24.819773585674078
       361    1   27.739746948694513   16.059853496612615    1.459986681510244
       362    1   27.739746948694513   16.059853496612615    7.299933407551205
       363    1   27.739746948694513   16.059853496612615   13.139880133592163
       364    1   27.739746948694513   16.059853496612615   18.979826859633118
       365    1   27.739746948694513   16.059853496612615   24.819773585674078
       366    1   27.739746948694510   21.899800222653564    1.459986681510245
       367    1   27.739746948694510   21.899800222653564    7.299933407551205
       368    1   27.739746948694510   21.899800222653564   13.139880133592165
       369    1   27.739746948694510   21.899800222653564   18.979826859633118
       370    1   27.739746948694510   21.899800222653564   24.819773585674078
       371    1   27.739746948694510   27.739746948694513    1.459986681510246
       372    1   27.739746948694510   27.739746948694513    7.299933407551206
       373    1   27.739746948694510   27.739746948694513   13.139880133592165
       374    1   27.739746948694510   27.739746948694513   18.979826859633121
       375    1   27.739746948694510   27.739746948694513   24.819773585674081