BEGIN_CFG
 Size
      21 
 Supercell 
   4.7836785600    0.0000000000    0.0000000000
   0.0000000000    8.2855743200    0.0000000000
   0.0000000000    0.0000000000    9.5585866800
AtomData:  id type       cartes_x      cartes_y      cartes_z     fx          fy          fz
      1     28     2.282555     5.010050     1.729314     0.361917     0.794644    -0.052587
      2     28     0.185557     6.329903     6.482033    -0.816055    -1.686747     0.448217
      3     28     4.766260     0.803828     1.634023    -0.726473     0.289686     0.017528
      4     28     0.109696     0.725519     6.510773    -0.821736     0.326681    -0.479936
      5      4     2.358785     7.740976     1.595733     0.515759    -0.291721    -0.566269
      6      4     2.244385     2.353675     1.694683     0.399104    -0.062817    -0.192605
      7      4     1.823354     3.551827     8.928208    -0.603841     1.275752    -0.209847
      8      4     3.148346     3.458197     4.022118     0.382171     0.755546    -0.439249
      9      4     2.622115     4.839130     6.461053    -0.441650     0.776940     0.232963
     10      4     4.026468     2.067014     8.904108     0.153892     0.637071     0.312375
     11      4     4.131938     7.587356     8.712188    -0.480745    -0.277708     0.399901
     12      4     3.161236     0.730247     3.916358     0.086089     0.677078     0.500318
     13      4     4.726790     6.345643     1.727914    -0.223035    -1.629827    -1.826970
     14      4     0.813155     2.065414     4.026618    -0.458047     1.723261     0.285665
     15      4     0.168607     3.365167     6.644504    -0.008806     0.561625    -0.335271
     16      1     1.713694     6.299733     8.758458     0.209692     0.211688     0.109542
     17     41     0.778938     7.619786     3.960158     0.198132    -2.969663     1.691129
     18     50     4.711590     3.672758     1.616883    -0.343315    -0.687581     0.377992
     19     45     2.408525     7.757066     6.488173     1.785562    -1.387443     0.290891
     20     45     1.646983     0.850199     8.883188     1.037244    -1.280719    -0.246675
     21     45     2.521035     2.068494     6.405673    -0.205859     2.244255    -0.317112
Energy 
	-92.06875519 
PlusStress:  xx          yy          zz          yz          xz          xy 
	18.3945102  	9.86055708  	0.11663404  	-0.36061967  	2.60284475  	-0.10340308 
END_CFG 
BEGIN_CFG
 Size
      22 
 Supercell 
   5.6997461300   -0.0001843500   -0.0027421000
  -0.0003193000    9.8592692400   -0.0123748400
  -0.0033583800   -0.0087503400    6.9567472600
AtomData:  id type       cartes_x      cartes_y      cartes_z     fx          fy          fz
      1      4     2.118016     0.361816     5.729325     1.550052     2.283281    -0.044702
      2      4     3.746076     1.134168     3.662119    -0.903077    -0.801114     0.702930
      3      4     2.074027     5.660453     5.785379     1.097600    -2.704776    -0.227870
      4      4     5.105374     7.247785     1.312610    -1.492164    -1.146200     0.478197
      5      4     2.383824     2.134172     1.322494    -0.321936     0.430149    -0.125983
      6      4     3.546904     4.867536     1.146828     0.156392    -0.493917    -0.800314
      7      4     0.791628     1.299989     3.604833     1.360905    -1.248858     1.778211
      8      4     0.857733     2.986026     6.198326     1.329593    -0.019158    -1.955757
      9      4     3.606866     6.090096     3.404394    -0.478197     1.643097     0.627138
     10      4     2.394098     8.521162     3.402684    -0.077535     0.414192    -0.137720
     11      4     2.007540     7.061002     1.051473     1.497916    -0.176293     1.486068
     12     43     0.711324     9.653187     1.244750     1.062752    -0.637831    -0.334876
     13     34     4.982988     3.704970     3.670774     0.240258     1.754339     0.944726
     14     34     0.693409     7.963964     5.770374    -2.890976    -0.129429     0.164781
     15     34     5.160536     2.225497     1.363640    -0.892942     0.585711    -1.047294
     16      5     3.586596     2.791645     5.842416    -1.025750    -0.500754     0.872167
     17     17     2.135575     3.683768     3.628244     0.045881     0.101688     0.102512
     18     17     0.713593     4.831172     1.049167     0.098666     0.504424     0.030056
     19     17     3.627894     9.583734     1.180079    -0.695157    -0.748299    -0.353044
     20     17     3.471723     7.835682     5.792515     0.851285     0.146709     0.070580
     21     17     0.770512     6.091157     3.590694     0.370101     0.578789    -0.954096
     22     17     5.070846     8.685026     3.620698    -0.883668     0.164250    -1.275708
Energy 
	-65.52039567 
PlusStress:  xx          yy          zz          yz          xz          xy 
	38.46710408  	34.33642425  	28.99718625  	-3.2688349  	-1.04428579  	-0.48702329 
END_CFG 
BEGIN_CFG
 Size
      22 
 Supercell 
   8.7052849700    0.0445583700   -0.0493413900
   0.0315075300    6.2008925500    0.0380262000
  -0.0569745300    0.0620965200   10.0882252500
AtomData:  id type       cartes_x      cartes_y      cartes_z     fx          fy          fz
      1      4     3.895853     3.677520     4.749872    -0.040573    -0.571980     0.163250
      2      3     7.022323     4.364153     0.052255    -0.366339    -0.104971    -0.258480
      3      3     3.942535     3.235375     9.790865    -0.027951    -0.491136     0.408415
      4      3     0.886399     2.877794     5.190052     0.769668    -1.589111     0.135908
      5      3     1.123379     5.680220     4.961642     0.466889     0.865808     1.018071
      6      3     5.694748     5.204106     2.539302    -0.406075    -0.004735    -0.059800
      7      3     8.614830     6.003377     2.347377    -0.371669     0.547206    -0.280338
      8      3     5.391576     2.185137     2.856472     0.073156     0.085478    -0.085195
      9      3     2.320330     4.329168     2.406985     0.489000    -0.737137    -0.164075
     10      3     4.065208     6.264766     9.743745    -0.610308     0.093989    -0.437059
     11      3     1.127570     5.157173     9.550429    -0.017559     0.488782     0.444901
     12      3     8.002673     2.700648     7.828722     0.921683    -0.346048     0.326924
     13      3     2.501106     4.120372     7.312093    -0.631513    -0.155066    -0.244818
     14      3     5.164625     4.740842     7.257043    -0.087146     0.720644     0.572628
     15      3     7.763215     5.902833     7.494013     1.021225     0.633886    -0.087702
     16      3     6.982974     3.956776     5.365537    -0.421272     0.013738    -1.134800
     17      3     4.341814     0.214065     4.776415    -0.508721     0.331896     0.721761
     18      3     8.221924     3.095746     2.484971     0.186582    -0.390689    -0.058326
     19      3     2.716016     0.934593     2.341207    -0.228223     0.755982    -0.190302
     20      3     6.688935     1.207674     0.401036     0.270899     0.178087    -0.526123
     21      3     5.165149     1.892003     7.103356    -0.593896    -0.526647     0.254377
     22     48     1.809762     0.630013     7.493269     0.112143     0.202024    -0.519217
Energy 
	-38.33088323 
PlusStress:  xx          yy          zz          yz          xz          xy 
	-5.23590322  	-3.35347811  	-2.99012276  	2.37469949  	-1.26585754  	2.41910116 
END_CFG 
BEGIN_CFG
 Size
      22 
 Supercell 
   7.8647795400    0.0150879500    0.0071653700
   0.0106687900    5.5469585200    0.0136006800
   0.0082738600    0.0222098300    9.0490624400
AtomData:  id type       cartes_x      cartes_y      cartes_z     fx          fy          fz
      1      4     3.153836     2.920949     3.579503     0.860279     0.427809     0.086556
      2      4     0.657651     4.738410     3.413902    -1.310708    -0.285000     0.975526
      3      4     0.755933     2.063877     3.146238    -1.510191    -0.650181     0.350095
      4      4     6.653040     3.312150     1.332315     0.607963    -1.225028    -0.217145
      5      4     4.067118     4.940565     5.564419    -0.138690    -0.067528     1.721718
      6      4     5.383665     3.055583     7.953680     0.240413     0.565878    -1.211163
      7      4     2.909371     2.006352     7.942739     0.963053     0.771971    -1.058520
      8      4     5.554367     4.355413     3.616885     0.746241    -0.161098    -0.815138
      9      4     4.599841     1.675222     1.086188    -0.224886    -0.431366     0.476488
     10      4     7.702973     1.660001     7.940684    -0.312897     0.745416    -0.779425
     11      4     1.815537     1.057153     5.765331    -0.799792    -0.646255    -0.234554
     12      4     1.838546     3.274055     0.868571    -0.783484     1.271168    -0.274636
     13      4     2.895059     0.248732     3.187873     1.167723     0.456308     0.234079
     14      4     4.081092     4.562248     1.224377     0.551357    -0.102620    -1.193745
     15      4     7.039784     0.156696     1.321078    -0.689492     1.549070     0.149487
     16      4     1.579027     0.788446     0.596204     0.538982    -1.943231     1.042063
     17     25     6.041400     1.592632     3.370902    -0.166482    -0.128832    -0.470087
     18     25     7.852499     4.379894     8.158210     0.589690    -0.650780     0.370054
     19     25     2.849110     5.002663     7.916524    -0.051017    -0.961217    -0.151395
     20     25     6.766096     3.127782     5.495032     0.710486     0.577506     1.105423
     21     25     5.590924     0.117066     8.260631    -1.531584     1.133722    -0.420245
     22     45     6.780034     0.330685     5.605877     0.543036    -0.245712     0.314565
Energy 
	-109.09420957 
PlusStress:  xx          yy          zz          yz          xz          xy 
	-10.8169881  	-17.96077543  	-20.19419984  	6.87982497  	2.61917883  	5.28791561 
END_CFG 
BEGIN_CFG
 Size
      22 
 Supercell 
   4.8113726700    0.0000000000    0.0000000000
   0.0000000000    8.3335419200    0.0000000000
   0.0000000000    0.0000000000    9.6139241300
AtomData:  id type       cartes_x      cartes_y      cartes_z     fx          fy          fz
      1      4     3.667768     0.953613     0.214361    -0.181101    -0.143822     0.012993
      2      4     2.772676     2.420825     7.329905    -1.042478     0.486089     0.734769
      3      4     3.496087     3.929908     0.576991     0.055341     0.116984    -0.998160
      4      4     0.207448     3.988928     2.886796     0.778243    -0.443337     0.734212
      5      4     0.140963     1.076422     7.437485     0.656934    -0.457605    -0.307087
      6      4     2.753186     2.215265     2.231385    -1.832884     0.648723     1.336817
      7      4     0.956508     2.407215     0.174243     1.061322     0.038395     0.521422
      8      4     2.749576     7.855196     2.734756    -0.547929     1.028968     0.371491
      9      4     1.580053     3.858168     5.434761     1.118130     0.060637    -0.698782
     10      4     1.813304     0.986271     4.707360    -0.414344     0.206350     1.101299
     11      4     2.736776     5.505801     7.913516    -0.158895    -0.705411    -0.418589
     12      4     4.042968     8.018956     5.272331    -0.088037    -0.134321     0.736014
     13      4     2.442715     8.130507     7.859056     0.201820    -0.443138    -1.010352
     14      4     4.025768     2.460325     5.015490     0.266585     0.163420     0.058819
     15      4     0.132830     1.320823     2.823316     1.046222    -0.855564    -0.693321
     16      4     4.216889     5.165991     5.477321    -0.609618     0.700952     0.229017
     17      4     3.536827     6.585794     0.654975     0.776201    -0.104812    -0.534036
     18      4     1.285803     8.006906     0.594806    -1.148499    -0.156269    -0.031829
     19      4     1.101732     5.117761     0.822127     0.304106     0.813575    -0.886199
     20      4     0.282842     3.805068     7.754166    -0.018237     0.909320    -0.074001
     21      4     0.239779     6.927124     3.189307     1.515310    -0.819172    -0.240852
     22      4     2.924186     5.370031     3.145246    -1.738191    -0.909963     0.056357
Energy 
	-76.3626778 
PlusStress:  xx          yy          zz          yz          xz          xy 
	13.76413937  	12.20038069  	10.51682935  	-0.7997702  	0.89268127  	-4.48305826 
END_CFG 
BEGIN_CFG
 Size
      22 
 Supercell 
   6.6367720100    0.0000000000    0.0000000000
   0.0000000000   11.4952263200    0.0000000000
   0.0000000000    0.0000000000    8.1283524800
AtomData:  id type       cartes_x      cartes_y      cartes_z     fx          fy          fz
      1     32     2.779356    11.397937     2.806726    -0.209479    -0.636492     0.621229
      2     32     0.570440     4.438319     5.055050     0.011154     0.247820    -0.364025
      3     32     2.239795     1.820814     5.780322    -0.834505    -0.651707    -2.536079
      4      3     5.150041     1.996624     4.742900     0.883532    -0.810523     0.779592
      5      3     6.076602     0.162122     2.574055     0.093593    -0.291447    -0.112645
      6      3     4.183619     2.831926     2.338205    -0.240633     0.271637    -0.429543
      7      3     4.175259     0.519349     8.002263     0.469365    -0.142966     0.033466
      8      3     5.776982     5.280271     2.228035    -0.294797     0.482729     0.095323
      9      3     0.716119     8.124717     2.607315    -0.265624     0.267707     0.653486
     10      3     1.067972     2.685316     2.095964    -0.329475     0.065451     0.453914
     11      3     0.862776     0.517094     8.045890    -0.537046    -0.426253     0.651277
     12      3     2.168074     7.497855     5.403431    -0.282981     0.193143    -0.001505
     13      3     2.497255     3.656547     7.840652     0.430042     1.273261     1.241210
     14      3     2.166724     5.668332     2.244645     0.879165    -0.241241     0.282264
     15      3     2.332195     9.349829     0.405585     0.507129    -0.447209    -0.750916
     16      3     6.013752     9.035699     0.151263    -0.535936     0.514320    -0.290205
     17      3     3.724558     4.710970     5.196421     0.399491    -0.017621    -0.158225
     18      3     0.456604    10.275821     5.331431    -0.143059    -0.070453     0.090310
     19      3     5.884402     3.516317     7.783936    -0.463502    -0.482648    -0.007884
     20      3     4.284279     6.597054     7.882946    -0.554351    -0.274975     0.129302
     21      3     5.111600     7.206135     5.084700     0.821342     0.626778    -0.295985
     22      3     0.689263     6.223483     7.856006     0.196576     0.550690    -0.084361
Energy 
	-37.27086907 
PlusStress:  xx          yy          zz          yz          xz          xy 
	1.90214646  	1.04279507  	1.44826508  	-0.23287803  	-1.41754418  	3.60313709 
END_CFG 
BEGIN_CFG
 Size
      22 
 Supercell 
   5.9216821600   -0.0023880600    0.0288544300
  -0.0041362500   10.3608397800   -0.0118955900
   0.0533283700   -0.0126932000   10.8236235400
AtomData:  id type       cartes_x      cartes_y      cartes_z     fx          fy          fz
      1      4     3.391870     5.141683     6.405499    -0.275362    -0.400806    -0.236419
      2     32     0.098510     9.487896     2.394119     1.939518    -0.484204     0.302028
      3     32     4.280152     6.529465     9.004328    -0.186025    -0.381726     0.033776
      4     32     3.794708     8.120127     1.338384    -0.546442     0.852950     0.120490
      5      3     4.728387     3.655186    10.195705     0.263883    -0.744825    -0.028137
      6      3     4.202658     1.000528     1.105024    -0.014572     1.102874    -0.706934
      7      3     1.760244     4.580349     9.121441    -0.098660    -0.243844     0.221617
      8      3     0.584557     1.557250     4.202949    -0.511991     0.920905     0.238184
      9      3     1.098297     7.142794     8.016331     0.802941     0.382893    -1.080986
     10      3     1.578015     7.599371     4.572177     0.399739    -0.881021    -0.020417
     11      3     2.965753     3.139184     3.702848     0.421778     0.631447    -0.112654
     12      3     2.811533     9.119255     9.179837    -0.450976     1.533876    -0.047793
     13      3     5.743359     9.477111     9.984503     0.294279     0.399412    -0.590298
     14      3     1.390769    10.025164     6.109571    -0.127776    -0.141103     0.727995
     15      3     0.505348     4.675877     5.830038    -0.242099     0.053379    -0.115651
     16      3     1.704936     2.069002     0.128979    -0.537161    -0.105674     0.027772
     17      3     3.265553     0.044598     3.522779    -0.657654     0.023558     0.983292
     18      3     0.263423     4.042242     2.318370    -0.223998     0.168943    -0.034229
     19      3     3.985290     1.556686     6.086036    -0.029694     0.116354     0.394732
     20      3     3.281647     5.331057     1.312741    -0.462445    -1.779008     0.182828
     21      3     0.783712     6.878934     0.479578     0.183435    -0.522340    -0.203974
     22      3     0.581682     2.292261     7.782195     0.059281    -0.502041    -0.055220
Energy 
	-36.33489998 
PlusStress:  xx          yy          zz          yz          xz          xy 
	2.12781612  	8.15193832  	-3.97423772  	-0.77331733  	2.89215814  	-0.200029 
END_CFG 
BEGIN_CFG
 Size
      22 
 Supercell 
   7.7730927700    0.0000000000    0.0000000000
   0.0000000000    5.4964066100    0.0000000000
   0.0000000000    0.0000000000    8.9755944000
AtomData:  id type       cartes_x      cartes_y      cartes_z     fx          fy          fz
      1      4     3.156736     3.416217     2.826356     0.228027     0.816449     0.888186
      2      4     5.248801     2.103094     4.082358     0.116931     1.732574    -0.076874
      3      4     3.712758     1.071112     5.783222    -1.326212    -1.558026     0.850017
      4      4     7.295575     0.876729     3.139696     0.986061    -0.328229     0.129137
      5      4     7.351985     3.493157     3.058366    -0.949636     1.496333     1.222712
      6      4     7.202965     1.051622     6.317163    -0.394880    -1.561540    -0.092111
      7      4     7.214645     1.179172     0.277505    -1.047275    -0.181144    -0.907692
      8      4     3.646887     3.598327     6.007412    -0.919330     1.630334    -0.603485
      9      4     1.142902     5.018130     5.029480     0.921733    -0.007118    -1.120492
     10      4     5.227841     2.385025     7.465075     0.424188    -0.310584     1.467586
     11      4     5.096630     2.480095     1.313323     1.143997     0.060300     0.375961
     12      4     5.281141     5.109800     4.123188    -0.121018    -1.762466     1.752017
     13      4     3.245347     3.979998     8.932873     0.529446    -0.703305    -0.285318
     14      4     1.166792     2.409315     1.672493     1.027871    -0.654426    -1.064628
     15      4     1.344123     2.257735     7.675546     0.596311     0.792826    -0.114064
     16      4     3.223417     1.122072     0.533358    -0.449484    -0.298547    -1.411825
     17      4     1.231473     5.106040     1.321733     0.328414    -0.219218     0.798796
     18      4     3.029386     0.666371     3.183257    -0.674901     0.105102     0.056606
     19      4     5.312511     5.105850     1.648423    -0.815905     0.713190    -0.657986
     20      4     6.991644     4.007928     0.136713     0.419944    -0.908715    -1.354967
     21      4     7.045284     3.465307     5.935242    -0.073973     1.365200    -0.081064
     22     27     1.504483     5.175251     7.516985     0.049690    -0.218990     0.229488
Energy 
	-77.30856327 
PlusStress:  xx          yy          zz          yz          xz          xy 
	15.01347565  	15.20792364  	5.60166629  	2.46067954  	-2.2754813  	0.76581415 
END_CFG 
BEGIN_CFG
 Size
      23 
 Supercell 
   8.8003024500   -0.1377703300    0.0329724600
  -0.0974183300    6.0273659400    0.0093292900
   0.0380733200    0.0152346700   10.2974409200
AtomData:  id type       cartes_x      cartes_y      cartes_z     fx          fy          fz
      1      3     2.875950     3.218548     0.020178    -0.185499     0.035628    -0.167212
      2      3     8.655493     4.645166    10.244494     0.010391    -0.671896     0.292303
      3      3     8.643140     1.135365     4.775521     0.135128    -0.069892     0.325768
      4      3     8.725128     4.120230     5.367709    -0.084962     0.135593    -0.270987
      5      3     4.173783     1.104840     2.776066     0.072852     0.086431     0.056229
      6      3     4.430183     4.159798     2.758228    -0.061111    -0.103691    -0.206033
      7      3     1.388668     2.174343     2.335710    -0.202214     0.143955     0.246633
      8      3     1.259138     5.167171     2.591181    -0.048485     0.176869     0.069567
      9      3     5.695592     5.156259    10.268627    -0.190232     0.261381    -0.249562
     10      3     5.803400     2.152448     0.279979     0.224892     0.152075    -0.135882
     11      3     2.673410     0.294641     0.068384     0.039411    -0.008995    -0.081559
     12      3     7.482861     0.147993     7.667214     0.224049    -0.272294     0.320731
     13      3     4.528684     1.065090     7.909210     0.033770    -0.013338    -0.268436
     14      3     4.551870     4.042458     7.636869     0.043141     0.178655     0.022629
     15      3     1.627883     4.671889     7.834313    -0.249008     0.096184     0.083398
     16      3     1.512797     1.652718     7.694516    -0.166576     0.164017    -0.007060
     17      3     5.914119     2.556517     5.203143     0.068403    -0.074960    -0.114307
     18      3     5.770738     5.612423     5.117049     0.007897    -0.138978     0.025624
     19      3     2.743457    -0.000928     5.257302     0.026593     0.062703     0.056985
     20      3     2.872647     3.027905     5.239797    -0.185909    -0.133061    -0.198266
     21      3     7.106509     0.323845     2.267528     0.509344     0.066717     0.152985
     22      3     7.435142     3.026252     7.921456     0.135523     0.010363     0.293360
     23     45     8.788136     1.493100    10.220809    -0.157395    -0.083467    -0.246908
Energy 
	-38.82674309 
PlusStress:  xx          yy          zz          yz          xz          xy 
	-4.29542714  	2.95838683  	-3.41341056  	0.06140855  	-0.29282674  	-1.28166771 
END_CFG 
BEGIN_CFG
 Size
      23 
 Supercell 
   8.7261448900   -0.0018960700   -0.0073016000
  -0.0013407200    6.1878735800    0.0051484200
  -0.0084311600    0.0084073400   10.0703632300
AtomData:  id type       cartes_x      cartes_y      cartes_z     fx          fy          fz
      1      3     4.456982     0.023416     7.522028    -0.062432    -0.169888     0.059743
      2      3     0.079461     3.172572     0.163970    -0.324615    -0.809503     0.157651
      3      3     0.102843     3.254556     5.192434     0.081087    -0.364365    -0.382419
      4      3     4.451859     2.988038     2.644656     0.256883     0.313685     0.051350
      5      3     1.588594     2.198587     2.674186     0.338975     0.007275    -0.032512
      6      3     1.618861     5.293374     2.694983    -0.576452    -0.263956     0.376105
      7      3     7.338489     1.003721     7.705499    -0.532401     0.803708     0.119289
      8      3     3.080610     1.228774     0.083868     0.285887    -0.214170    -0.231442
      9      3     5.906026     5.296653    10.033576    -0.698894     0.167110     0.646319
     10      3     1.510748     2.216971     7.631825     0.021907    -0.109998     0.184008
     11      3     1.524617     5.280112     7.708722     0.482852    -0.044341    -0.713373
     12      3     5.935740     2.127870     5.154742    -0.324085    -0.013562     0.345280
     13      3     6.028902     5.178862     5.018480    -0.732296    -0.269105     0.438168
     14      3     3.070417     4.204579     5.112366     0.012717    -0.002472     0.210384
     15      3     2.934336     1.084055     5.175878     0.417647     0.321777     0.069721
     16      3     7.348651     4.227970     2.602093     0.068399    -0.315430    -0.099056
     17      3     4.429270     3.064126     7.695220    -0.357240    -0.154627    -0.084941
     18     35     2.928375     4.257063     0.147069     0.650604    -0.181635    -0.330280
     19     35     0.052858     6.165133     0.111302     0.703991     1.033232     0.614989
     20     34     7.434407     1.045219     2.614498    -0.534005     0.790866    -0.806372
     21     34     7.262292     4.178629     7.715735     0.754393    -0.918007    -0.236306
     22     34     0.041104     0.123588     5.180719     0.157349     0.488837    -0.042129
     23     36     4.474053     6.159127     2.653642    -0.090270    -0.095431    -0.314175
Energy 
	-49.70489918 
PlusStress:  xx          yy          zz          yz          xz          xy 
	23.36235719  	27.61523088  	22.32795808  	1.28779418  	-1.11948872  	-0.45269559 
END_CFG 
BEGIN_CFG
 Size
      23 
 Supercell 
   9.2726144900    0.0000000000    0.0000000000
   0.0000000000    6.5567285800    0.0000000000
   0.0000000000    0.0000000000   10.7070929400
AtomData:  id type       cartes_x      cartes_y      cartes_z     fx          fy          fz
      1     28     5.386471     5.068250     8.488067     0.121862    -0.084102    -0.038125
      2     28     2.123174     2.891936     7.884636     0.075781     0.115319     0.066002
      3     28     7.420465     1.789794     1.691343    -0.255335     0.250586    -0.145880
      4      3     7.696756     2.903316     9.236819     0.418599     0.893478     0.419014
      5      3     4.388539     1.565143     0.470474     0.050786    -0.804929    -0.149699
      6      3     1.515333     1.498403     0.462732    -0.627787    -0.061252    -0.893278
      7      3     7.760086     5.617142     6.203393    -1.855802    -0.881109     0.117979
      8      3     9.063371     0.219179     8.543128     1.103070     0.082139    -0.519508
      9      3     6.915114     0.210656    10.145621    -0.530225    -0.293706     0.520197
     10      3     3.706768     3.600147     2.650565    -1.584273    -0.457226     1.482085
     11      3     2.202315     6.301263     2.734306     0.869528    -0.145760    -0.706593
     12      3     3.224897     5.263661    10.533204    -0.295064     0.076870    -0.573730
     13      3     4.190149     4.698120     5.857902    -0.341255    -0.569594     0.488041
     14      3     5.365491     6.374933     3.973018     0.033635     0.633870    -0.695870
     15      3     3.019906     0.248059     7.931656     0.103093     0.098594    -0.091283
     16      3     0.575284     4.678690     0.604286     0.145319    -0.704233    -1.460420
     17     38     6.282163     1.595083     6.903324    -1.855566    -0.199248     0.188116
     18     38     8.993118     2.795566     6.026422     0.905906     0.366060     0.753510
     19     38     8.312217     5.630312     2.702736    -1.114502     0.942703     1.214403
     20     38     5.671402     4.155119     0.953804     3.040697     1.174710    -0.840814
     21     42     0.880168     6.512185     5.253541     1.329032    -0.172317     0.694191
     22     42     0.515254     2.638435     3.129006     0.511541    -0.163435    -0.207199
     23     17     3.127336     1.975064     4.920740    -0.249041    -0.097417     0.378861
Energy 
	-47.62608434 
PlusStress:  xx          yy          zz          yz          xz          xy 
	4.85173011  	-10.5866369  	-0.70972653  	1.73610042  	-10.01391755  	0.4763019 
END_CFG 
BEGIN_CFG
 Size
      23 
 Supercell 
   5.3607917900    0.0000000000    0.0000000000
   0.0000000000    9.2851637500    0.0000000000
   0.0000000000    0.0000000000    9.9077434300
AtomData:  id type       cartes_x      cartes_y      cartes_z     fx          fy          fz
      1     43     0.328347     1.263863     7.743976     0.571383     0.238743     1.749512
      2      3     3.191327     2.804496     7.856186    -0.590173     0.433440     0.508730
      3      3     0.466629     4.433409     2.914496     0.465108     0.536752     0.657908
      4      3     2.506265     1.324293     0.296790    -0.387369     0.193076     0.818285
      5      3     3.237757     5.779232     8.040136     0.454797     0.440957    -0.085335
      6      3     0.800644     7.420875     8.194887    -0.587887     0.330571    -0.037516
      7      3     2.330645     4.451919     0.438743    -0.254702     0.071465     0.538137
      8      3     3.213117     8.797738     8.101297     0.294138     0.016146     0.294174
      9      3     5.190141     9.256889     0.737198    -0.149916    -0.425295    -0.629314
     10      3     3.697718     1.226303     5.598371     0.484295     0.344727    -0.469916
     11      3     3.299277     8.920548     3.223897    -0.193045     0.397005    -0.849501
     12      3     0.563718     4.545739     7.928706    -0.153214    -0.635557     0.173792
     13      3     0.724293     7.416145     2.975616    -0.966517     0.737324     0.212214
     14      3     3.501157     2.972566     3.271487    -1.448439    -0.243491    -0.789455
     15      3     5.036840     6.214823     0.552620    -0.296865    -0.282848     0.349291
     16      3     1.270103     6.072712     5.623192     0.521417    -0.635730    -0.604592
     17      3     4.025478     4.377069     5.615362    -0.111462     0.427646    -0.262144
     18      3     4.179239     7.555776     5.583421     0.031606    -0.331073     0.179879
     19      3     0.360359     1.460503     2.983556     1.018306    -0.542893     0.412958
     20      3     1.179272     2.850936     5.424491     0.467611     0.467861    -0.335357